
#(C) 2024 by FIZ Karlsruhe - Leibniz Institute for Information Infrastructure.  All rights reserved.
data_235747-ICSD
_database_code_ICSD 235747
_audit_creation_date 2020-02-01
_chemical_name_common 'Barium cobalt silver oxyselenide'
_chemical_formula_structural 'Ba2 Co O2 Ag2 Se2'
_chemical_formula_sum 'Ag2 Ba2 Co0.5 Co1.5 O2 Se2'
_chemical_name_structure_type Sr2Mn3Sb2O2#Sr2Mn3As2O2
_exptl_crystal_density_diffrn 6.9
_citation_title

;
Magnetic ordering in the layered oxyselenides Sr$_2$CoO$_2$Ag$_2$Se$_2$ and
Ba$_2$CoO$_2$Ag$_2$Se$_2$
;
loop_
_citation_id
_citation_journal_full
_citation_year
_citation_journal_volume
_citation_page_first
_citation_page_last
_citation_journal_id_ASTM
primary 'Journal of Solid State Chemistry' 2018 264 119 123 JSSCBI
loop_
_citation_author_citation_id
_citation_author_name
primary 'Herkelrath, Sebastian J.C.'
primary 'Blandy, Jack N.'
primary 'Clarke, Simon J.'
_cell_length_a 4.21471(8)
_cell_length_b 4.21471(8)
_cell_length_c 20.0193(5)
_cell_angle_alpha 90.
_cell_angle_beta 90.
_cell_angle_gamma 90.
_cell_volume 355.62
_cell_formula_units_Z 2
_space_group_name_H-M_alt 'I 4/m m m'
_space_group_IT_number 139
loop_
_space_group_symop_id
_space_group_symop_operation_xyz
1 'y, x, -z'
2 '-y, -x, -z'
3 '-y, x, -z'
4 'y, -x, -z'
5 '-x, y, -z'
6 'x, -y, -z'
7 'x, y, -z'
8 '-x, -y, -z'
9 '-y, -x, z'
10 'y, x, z'
11 'y, -x, z'
12 '-y, x, z'
13 'x, -y, z'
14 '-x, y, z'
15 '-x, -y, z'
16 'x, y, z'
17 'y+1/2, x+1/2, -z+1/2'
18 '-y+1/2, -x+1/2, -z+1/2'
19 '-y+1/2, x+1/2, -z+1/2'
20 'y+1/2, -x+1/2, -z+1/2'
21 '-x+1/2, y+1/2, -z+1/2'
22 'x+1/2, -y+1/2, -z+1/2'
23 'x+1/2, y+1/2, -z+1/2'
24 '-x+1/2, -y+1/2, -z+1/2'
25 '-y+1/2, -x+1/2, z+1/2'
26 'y+1/2, x+1/2, z+1/2'
27 'y+1/2, -x+1/2, z+1/2'
28 '-y+1/2, x+1/2, z+1/2'
29 'x+1/2, -y+1/2, z+1/2'
30 '-x+1/2, y+1/2, z+1/2'
31 '-x+1/2, -y+1/2, z+1/2'
32 'x+1/2, y+1/2, z+1/2'
loop_
_atom_type_symbol
_atom_type_oxidation_number
Ba2+ 2
Co2+ 2
O2- -2
Ag1+ 1
Se2- -2
loop_
_atom_site_label
_atom_site_type_symbol
_atom_site_symmetry_multiplicity
_atom_site_Wyckoff_symbol
_atom_site_fract_x
_atom_site_fract_y
_atom_site_fract_z
_atom_site_U_iso_or_equiv
_atom_site_occupancy
Ba1 Ba2+ 4 e 0 0 0.41233(4) . 1.
Co1 Co2+ 2 a 0 0 0 0.0076(8) 1.
O1 O2- 4 c 0 0.5 0 . 1.
Ag1 Ag1+ 4 d 0 0.5 0.25 . 1.
Se1 Se2- 4 e 0 0 0.15535(6) . 1.
#End of TTdata_235747-ICSD